<?xml version="1.0" encoding="UTF-8"?>

<!-- generated on 2024-08-31 11:20:51 by Eclipse SUMO sumo Version 1.20.0
<configuration xmlns:xsi="http://www.w3.org/2001/XMLSchema-instance" xsi:noNamespaceSchemaLocation="http://sumo.dlr.de/xsd/sumoConfiguration.xsd">

    <input>
        <net-file value="sumo/training/maps.net.xml"/>
        <route-files value="sumo/training/vehicle.rou.xml"/>
    </input>

    <output>
        <tripinfo-output value="tripinfo.xml"/>
    </output>

    <time>
        <begin value="0"/>
        <end value="200"/>
    </time>

    <report>
        <verbose value="true"/>
        <no-step-log value="true"/>
    </report>

    <traci_server>
        <remote-port value="6299"/>
    </traci_server>

</configuration>
-->

<tripinfos xmlns:xsi="http://www.w3.org/2001/XMLSchema-instance" xsi:noNamespaceSchemaLocation="http://sumo.dlr.de/xsd/tripinfo_file.xsd">
    <tripinfo id="0" depart="0.00" departLane="RTL_0" departPos="5.10" departSpeed="0.00" departDelay="0.00" arrival="30.00" arrivalLane="-LTR_0" arrivalPos="178.50" arrivalSpeed="13.88" duration="30.00" routeLength="366.40" waitingTime="0.00" waitingCount="0" stopTime="0.00" timeLoss="4.25" rerouteNo="0" devices="tripinfo_0" vType="DEFAULT_VEHTYPE" speedFactor="1.06" vaporized=""/>
    <tripinfo id="5" depart="5.00" departLane="LTR_0" departPos="5.10" departSpeed="0.00" departDelay="0.00" arrival="35.00" arrivalLane="-RTL_0" arrivalPos="178.50" arrivalSpeed="13.02" duration="30.00" routeLength="366.40" waitingTime="0.00" waitingCount="0" stopTime="0.00" timeLoss="3.73" rerouteNo="0" devices="tripinfo_5" vType="DEFAULT_VEHTYPE" speedFactor="1.01" vaporized=""/>
    <tripinfo id="8" depart="8.00" departLane="LTR_0" departPos="5.10" departSpeed="0.00" departDelay="0.00" arrival="37.00" arrivalLane="-RTL_0" arrivalPos="178.50" arrivalSpeed="14.03" duration="29.00" routeLength="366.40" waitingTime="0.00" waitingCount="0" stopTime="0.00" timeLoss="4.21" rerouteNo="0" devices="tripinfo_8" vType="DEFAULT_VEHTYPE" speedFactor="1.08" vaporized=""/>
    <tripinfo id="3" depart="3.00" departLane="RTL_0" departPos="5.10" departSpeed="0.00" departDelay="0.00" arrival="51.00" arrivalLane="-LTR_0" arrivalPos="178.50" arrivalSpeed="12.66" duration="48.00" routeLength="366.40" waitingTime="10.00" waitingCount="1" stopTime="0.00" timeLoss="19.59" rerouteNo="0" devices="tripinfo_3" vType="DEFAULT_VEHTYPE" speedFactor="0.94" vaporized=""/>
    <tripinfo id="9" depart="9.00" departLane="RTL_0" departPos="5.10" departSpeed="0.00" departDelay="0.00" arrival="53.00" arrivalLane="-LTR_0" arrivalPos="178.50" arrivalSpeed="13.33" duration="44.00" routeLength="366.40" waitingTime="6.00" waitingCount="1" stopTime="0.00" timeLoss="17.85" rerouteNo="0" devices="tripinfo_9" vType="DEFAULT_VEHTYPE" speedFactor="1.03" vaporized=""/>
    <tripinfo id="12" depart="12.00" departLane="RTL_0" departPos="5.10" departSpeed="0.00" departDelay="0.00" arrival="57.00" arrivalLane="-LTR_0" arrivalPos="178.50" arrivalSpeed="10.97" duration="45.00" routeLength="366.40" waitingTime="4.00" waitingCount="1" stopTime="0.00" timeLoss="12.93" rerouteNo="0" devices="tripinfo_12" vType="DEFAULT_VEHTYPE" speedFactor="0.83" vaporized=""/>
    <tripinfo id="20" depart="20.00" departLane="RTL_0" departPos="5.10" departSpeed="0.00" departDelay="0.00" arrival="59.00" arrivalLane="-LTR_0" arrivalPos="178.50" arrivalSpeed="11.07" duration="39.00" routeLength="366.40" waitingTime="0.00" waitingCount="0" stopTime="0.00" timeLoss="8.76" rerouteNo="0" devices="tripinfo_20" vType="DEFAULT_VEHTYPE" speedFactor="0.89" vaporized=""/>
    <tripinfo id="24" depart="24.00" departLane="RTL_0" departPos="5.10" departSpeed="0.00" departDelay="0.00" arrival="61.00" arrivalLane="-LTR_0" arrivalPos="178.50" arrivalSpeed="11.90" duration="37.00" routeLength="366.40" waitingTime="0.00" waitingCount="0" stopTime="0.00" timeLoss="8.14" rerouteNo="0" devices="tripinfo_24" vType="DEFAULT_VEHTYPE" speedFactor="0.94" vaporized=""/>
    <tripinfo id="17" depart="17.00" departLane="LTR_0" departPos="5.10" departSpeed="0.00" departDelay="0.00" arrival="65.00" arrivalLane="-RTL_0" arrivalPos="178.50" arrivalSpeed="14.47" duration="48.00" routeLength="366.40" waitingTime="13.00" waitingCount="1" stopTime="0.00" timeLoss="21.82" rerouteNo="0" devices="tripinfo_17" vType="DEFAULT_VEHTYPE" speedFactor="1.05" vaporized=""/>
    <tripinfo id="26" depart="26.00" departLane="LTR_0" departPos="5.10" departSpeed="0.00" departDelay="0.00" arrival="69.00" arrivalLane="-RTL_0" arrivalPos="178.50" arrivalSpeed="10.96" duration="43.00" routeLength="366.40" waitingTime="3.00" waitingCount="1" stopTime="0.00" timeLoss="12.06" rerouteNo="0" devices="tripinfo_26" vType="DEFAULT_VEHTYPE" speedFactor="0.86" vaporized=""/>
    <tripinfo id="28" depart="29.00" departLane="LTR_0" departPos="5.10" departSpeed="0.00" departDelay="1.00" arrival="71.00" arrivalLane="-RTL_0" arrivalPos="178.50" arrivalSpeed="14.24" duration="42.00" routeLength="366.40" waitingTime="2.00" waitingCount="1" stopTime="0.00" timeLoss="17.31" rerouteNo="0" devices="tripinfo_28" vType="DEFAULT_VEHTYPE" speedFactor="1.09" vaporized=""/>
    <tripinfo id="35" depart="35.00" departLane="LTR_0" departPos="5.10" departSpeed="0.00" departDelay="0.00" arrival="73.00" arrivalLane="-RTL_0" arrivalPos="178.50" arrivalSpeed="13.15" duration="38.00" routeLength="366.40" waitingTime="0.00" waitingCount="0" stopTime="0.00" timeLoss="11.52" rerouteNo="0" devices="tripinfo_35" vType="DEFAULT_VEHTYPE" speedFactor="1.03" vaporized=""/>
    <tripinfo id="36" depart="36.00" departLane="RTL_0" departPos="5.10" departSpeed="0.00" departDelay="0.00" arrival="79.00" arrivalLane="-LTR_0" arrivalPos="178.50" arrivalSpeed="14.50" duration="43.00" routeLength="366.40" waitingTime="8.00" waitingCount="1" stopTime="0.00" timeLoss="17.72" rerouteNo="0" devices="tripinfo_36" vType="DEFAULT_VEHTYPE" speedFactor="1.05" vaporized=""/>
    <tripinfo id="37" depart="39.00" departLane="RTL_0" departPos="5.10" departSpeed="0.00" departDelay="2.00" arrival="81.00" arrivalLane="-LTR_0" arrivalPos="178.50" arrivalSpeed="14.61" duration="42.00" routeLength="366.40" waitingTime="6.00" waitingCount="1" stopTime="0.00" timeLoss="18.12" rerouteNo="0" devices="tripinfo_37" vType="DEFAULT_VEHTYPE" speedFactor="1.12" vaporized=""/>
    <tripinfo id="38" depart="42.00" departLane="RTL_0" departPos="5.10" departSpeed="0.00" departDelay="4.00" arrival="85.00" arrivalLane="-LTR_0" arrivalPos="178.50" arrivalSpeed="13.33" duration="43.00" routeLength="366.40" waitingTime="4.00" waitingCount="1" stopTime="0.00" timeLoss="15.53" rerouteNo="0" devices="tripinfo_38" vType="DEFAULT_VEHTYPE" speedFactor="0.99" vaporized=""/>
    <tripinfo id="40" depart="45.00" departLane="RTL_0" departPos="5.10" departSpeed="0.00" departDelay="5.00" arrival="87.00" arrivalLane="-LTR_0" arrivalPos="178.50" arrivalSpeed="12.43" duration="42.00" routeLength="366.40" waitingTime="1.00" waitingCount="1" stopTime="0.00" timeLoss="13.50" rerouteNo="0" devices="tripinfo_40" vType="DEFAULT_VEHTYPE" speedFactor="0.93" vaporized=""/>
    <tripinfo id="46" depart="48.00" departLane="RTL_0" departPos="5.10" departSpeed="0.00" departDelay="2.00" arrival="89.00" arrivalLane="-LTR_0" arrivalPos="178.50" arrivalSpeed="12.45" duration="41.00" routeLength="366.40" waitingTime="1.00" waitingCount="1" stopTime="0.00" timeLoss="12.76" rerouteNo="0" devices="tripinfo_46" vType="DEFAULT_VEHTYPE" speedFactor="0.94" vaporized=""/>
    <tripinfo id="55" depart="55.00" departLane="RTL_0" departPos="5.10" departSpeed="0.00" departDelay="0.00" arrival="91.00" arrivalLane="-LTR_0" arrivalPos="178.50" arrivalSpeed="12.75" duration="36.00" routeLength="366.40" waitingTime="0.00" waitingCount="0" stopTime="0.00" timeLoss="9.42" rerouteNo="0" devices="tripinfo_55" vType="DEFAULT_VEHTYPE" speedFactor="1.01" vaporized=""/>
    <tripinfo id="56" depart="58.00" departLane="RTL_0" departPos="5.10" departSpeed="0.00" departDelay="2.00" arrival="93.00" arrivalLane="-LTR_0" arrivalPos="178.50" arrivalSpeed="12.48" duration="35.00" routeLength="366.40" waitingTime="0.00" waitingCount="0" stopTime="0.00" timeLoss="7.23" rerouteNo="0" devices="tripinfo_56" vType="DEFAULT_VEHTYPE" speedFactor="0.97" vaporized=""/>
    <tripinfo id="45" depart="45.00" departLane="LTR_0" departPos="5.10" departSpeed="0.00" departDelay="0.00" arrival="96.00" arrivalLane="-RTL_0" arrivalPos="178.50" arrivalSpeed="11.95" duration="51.00" routeLength="366.40" waitingTime="15.00" waitingCount="1" stopTime="0.00" timeLoss="20.79" rerouteNo="0" devices="tripinfo_45" vType="DEFAULT_VEHTYPE" speedFactor="0.88" vaporized=""/>
    <tripinfo id="50" depart="50.00" departLane="LTR_0" departPos="5.10" departSpeed="0.00" departDelay="0.00" arrival="98.00" arrivalLane="-RTL_0" arrivalPos="178.50" arrivalSpeed="12.12" duration="48.00" routeLength="366.40" waitingTime="11.00" waitingCount="1" stopTime="0.00" timeLoss="19.50" rerouteNo="0" devices="tripinfo_50" vType="DEFAULT_VEHTYPE" speedFactor="0.94" vaporized=""/>
    <tripinfo id="52" depart="53.00" departLane="LTR_0" departPos="5.10" departSpeed="0.00" departDelay="1.00" arrival="100.00" arrivalLane="-RTL_0" arrivalPos="178.50" arrivalSpeed="15.14" duration="47.00" routeLength="366.40" waitingTime="8.00" waitingCount="1" stopTime="0.00" timeLoss="23.45" rerouteNo="0" devices="tripinfo_52" vType="DEFAULT_VEHTYPE" speedFactor="1.16" vaporized=""/>
    <tripinfo id="54" depart="56.00" departLane="LTR_0" departPos="5.10" departSpeed="0.00" departDelay="2.00" arrival="102.00" arrivalLane="-RTL_0" arrivalPos="178.50" arrivalSpeed="13.19" duration="46.00" routeLength="366.40" waitingTime="7.00" waitingCount="1" stopTime="0.00" timeLoss="19.26" rerouteNo="0" devices="tripinfo_54" vType="DEFAULT_VEHTYPE" speedFactor="1.02" vaporized=""/>
    <tripinfo id="58" depart="58.00" departLane="LTR_0" departPos="5.10" departSpeed="0.00" departDelay="0.00" arrival="105.00" arrivalLane="-RTL_0" arrivalPos="178.50" arrivalSpeed="11.11" duration="47.00" routeLength="366.40" waitingTime="6.00" waitingCount="1" stopTime="0.00" timeLoss="16.48" rerouteNo="0" devices="tripinfo_58" vType="DEFAULT_VEHTYPE" speedFactor="0.89" vaporized=""/>
    <tripinfo id="63" depart="63.00" departLane="LTR_0" departPos="5.10" departSpeed="0.00" departDelay="0.00" arrival="107.00" arrivalLane="-RTL_0" arrivalPos="178.50" arrivalSpeed="11.22" duration="44.00" routeLength="366.40" waitingTime="2.00" waitingCount="1" stopTime="0.00" timeLoss="13.02" rerouteNo="0" devices="tripinfo_63" vType="DEFAULT_VEHTYPE" speedFactor="0.87" vaporized=""/>
    <tripinfo id="68" depart="68.00" departLane="LTR_0" departPos="5.10" departSpeed="0.00" departDelay="0.00" arrival="109.00" arrivalLane="-RTL_0" arrivalPos="178.50" arrivalSpeed="12.63" duration="41.00" routeLength="366.40" waitingTime="0.00" waitingCount="0" stopTime="0.00" timeLoss="11.26" rerouteNo="0" devices="tripinfo_68" vType="DEFAULT_VEHTYPE" speedFactor="0.92" vaporized=""/>
    <tripinfo id="59" depart="61.00" departLane="RTL_0" departPos="5.10" departSpeed="0.00" departDelay="2.00" arrival="113.00" arrivalLane="-LTR_0" arrivalPos="178.50" arrivalSpeed="10.36" duration="52.00" routeLength="366.40" waitingTime="11.00" waitingCount="1" stopTime="0.00" timeLoss="19.63" rerouteNo="0" devices="tripinfo_59" vType="DEFAULT_VEHTYPE" speedFactor="0.83" vaporized=""/>
    <tripinfo id="69" depart="69.00" departLane="RTL_0" departPos="5.10" departSpeed="0.00" departDelay="0.00" arrival="115.00" arrivalLane="-LTR_0" arrivalPos="178.50" arrivalSpeed="12.77" duration="46.00" routeLength="366.40" waitingTime="6.00" waitingCount="1" stopTime="0.00" timeLoss="17.42" rerouteNo="0" devices="tripinfo_69" vType="DEFAULT_VEHTYPE" speedFactor="0.95" vaporized=""/>
    <tripinfo id="82" depart="82.00" departLane="RTL_0" departPos="5.10" departSpeed="0.00" departDelay="0.00" arrival="116.00" arrivalLane="-LTR_0" arrivalPos="178.50" arrivalSpeed="13.47" duration="34.00" routeLength="366.40" waitingTime="0.00" waitingCount="0" stopTime="0.00" timeLoss="7.32" rerouteNo="0" devices="tripinfo_82" vType="DEFAULT_VEHTYPE" speedFactor="0.99" vaporized=""/>
    <tripinfo id="87" depart="87.00" departLane="RTL_0" departPos="5.10" departSpeed="0.00" departDelay="0.00" arrival="118.00" arrivalLane="-LTR_0" arrivalPos="178.50" arrivalSpeed="15.44" duration="31.00" routeLength="366.40" waitingTime="0.00" waitingCount="0" stopTime="0.00" timeLoss="8.03" rerouteNo="0" devices="tripinfo_87" vType="DEFAULT_VEHTYPE" speedFactor="1.18" vaporized=""/>
    <tripinfo id="91" depart="91.00" departLane="RTL_0" departPos="5.10" departSpeed="0.00" departDelay="0.00" arrival="120.00" arrivalLane="-LTR_0" arrivalPos="178.50" arrivalSpeed="14.99" duration="29.00" routeLength="366.40" waitingTime="0.00" waitingCount="0" stopTime="0.00" timeLoss="4.36" rerouteNo="0" devices="tripinfo_91" vType="DEFAULT_VEHTYPE" speedFactor="1.10" vaporized=""/>
    <tripinfo id="70" depart="71.00" departLane="LTR_0" departPos="5.10" departSpeed="0.00" departDelay="1.00" arrival="124.00" arrivalLane="-RTL_0" arrivalPos="178.50" arrivalSpeed="15.09" duration="53.00" routeLength="366.40" waitingTime="13.00" waitingCount="1" stopTime="0.00" timeLoss="29.04" rerouteNo="0" devices="tripinfo_70" vType="DEFAULT_VEHTYPE" speedFactor="1.13" vaporized=""/>
    <tripinfo id="71" depart="74.00" departLane="LTR_0" departPos="5.10" departSpeed="0.00" departDelay="3.00" arrival="128.00" arrivalLane="-RTL_0" arrivalPos="178.50" arrivalSpeed="12.27" duration="54.00" routeLength="366.40" waitingTime="13.00" waitingCount="1" stopTime="0.00" timeLoss="25.40" rerouteNo="0" devices="tripinfo_71" vType="DEFAULT_VEHTYPE" speedFactor="0.93" vaporized=""/>
    <tripinfo id="76" depart="77.00" departLane="LTR_0" departPos="5.10" departSpeed="0.00" departDelay="1.00" arrival="130.00" arrivalLane="-RTL_0" arrivalPos="178.50" arrivalSpeed="15.65" duration="53.00" routeLength="366.40" waitingTime="12.00" waitingCount="1" stopTime="0.00" timeLoss="29.93" rerouteNo="0" devices="tripinfo_76" vType="DEFAULT_VEHTYPE" speedFactor="1.18" vaporized=""/>
    <tripinfo id="78" depart="80.00" departLane="LTR_0" departPos="5.10" departSpeed="0.00" departDelay="2.00" arrival="131.00" arrivalLane="-RTL_0" arrivalPos="178.50" arrivalSpeed="15.83" duration="51.00" routeLength="366.40" waitingTime="10.00" waitingCount="1" stopTime="0.00" timeLoss="28.11" rerouteNo="0" devices="tripinfo_78" vType="DEFAULT_VEHTYPE" speedFactor="1.15" vaporized=""/>
    <tripinfo id="80" depart="83.00" departLane="LTR_0" departPos="5.10" departSpeed="0.00" departDelay="3.00" arrival="133.00" arrivalLane="-RTL_0" arrivalPos="178.50" arrivalSpeed="13.17" duration="50.00" routeLength="366.40" waitingTime="11.00" waitingCount="1" stopTime="0.00" timeLoss="23.57" rerouteNo="0" devices="tripinfo_80" vType="DEFAULT_VEHTYPE" speedFactor="1.01" vaporized=""/>
    <tripinfo id="81" depart="86.00" departLane="LTR_0" departPos="5.10" departSpeed="0.00" departDelay="5.00" arrival="135.00" arrivalLane="-RTL_0" arrivalPos="178.50" arrivalSpeed="15.14" duration="49.00" routeLength="366.40" waitingTime="9.00" waitingCount="1" stopTime="0.00" timeLoss="25.85" rerouteNo="0" devices="tripinfo_81" vType="DEFAULT_VEHTYPE" speedFactor="1.17" vaporized=""/>
    <tripinfo id="83" depart="89.00" departLane="LTR_0" departPos="5.10" departSpeed="0.00" departDelay="6.00" arrival="137.00" arrivalLane="-RTL_0" arrivalPos="178.50" arrivalSpeed="13.98" duration="48.00" routeLength="366.40" waitingTime="7.00" waitingCount="1" stopTime="0.00" timeLoss="21.40" rerouteNo="0" devices="tripinfo_83" vType="DEFAULT_VEHTYPE" speedFactor="1.02" vaporized=""/>
    <tripinfo id="93" depart="94.00" departLane="RTL_0" departPos="5.10" departSpeed="0.00" departDelay="1.00" arrival="142.00" arrivalLane="-LTR_0" arrivalPos="178.50" arrivalSpeed="12.15" duration="48.00" routeLength="366.40" waitingTime="8.00" waitingCount="1" stopTime="0.00" timeLoss="17.82" rerouteNo="0" devices="tripinfo_93" vType="DEFAULT_VEHTYPE" speedFactor="0.90" vaporized=""/>
    <tripinfo id="98" depart="98.00" departLane="RTL_0" departPos="5.10" departSpeed="0.00" departDelay="0.00" arrival="143.00" arrivalLane="-LTR_0" arrivalPos="178.50" arrivalSpeed="13.38" duration="45.00" routeLength="366.40" waitingTime="8.00" waitingCount="1" stopTime="0.00" timeLoss="20.64" rerouteNo="0" devices="tripinfo_98" vType="DEFAULT_VEHTYPE" speedFactor="1.09" vaporized=""/>
    <tripinfo id="101" depart="101.00" departLane="RTL_0" departPos="5.10" departSpeed="0.00" departDelay="0.00" arrival="145.00" arrivalLane="-LTR_0" arrivalPos="178.50" arrivalSpeed="14.30" duration="44.00" routeLength="366.40" waitingTime="5.00" waitingCount="1" stopTime="0.00" timeLoss="17.98" rerouteNo="0" devices="tripinfo_101" vType="DEFAULT_VEHTYPE" speedFactor="1.04" vaporized=""/>
    <tripinfo id="118" depart="118.00" departLane="RTL_0" departPos="5.10" departSpeed="0.00" departDelay="0.00" arrival="153.00" arrivalLane="-LTR_0" arrivalPos="178.50" arrivalSpeed="11.72" duration="35.00" routeLength="366.40" waitingTime="0.00" waitingCount="0" stopTime="0.00" timeLoss="4.41" rerouteNo="0" devices="tripinfo_118" vType="DEFAULT_VEHTYPE" speedFactor="0.88" vaporized=""/>
    <tripinfo id="86" depart="92.00" departLane="LTR_0" departPos="5.10" departSpeed="0.00" departDelay="6.00" arrival="156.00" arrivalLane="-RTL_0" arrivalPos="178.50" arrivalSpeed="13.50" duration="64.00" routeLength="366.40" waitingTime="19.00" waitingCount="2" stopTime="0.00" timeLoss="36.07" rerouteNo="0" devices="tripinfo_86" vType="DEFAULT_VEHTYPE" speedFactor="0.97" vaporized=""/>
    <tripinfo id="96" depart="96.00" departLane="LTR_0" departPos="5.10" departSpeed="0.00" departDelay="0.00" arrival="157.00" arrivalLane="-RTL_0" arrivalPos="178.50" arrivalSpeed="13.40" duration="61.00" routeLength="366.40" waitingTime="15.00" waitingCount="2" stopTime="0.00" timeLoss="35.25" rerouteNo="0" devices="tripinfo_96" vType="DEFAULT_VEHTYPE" speedFactor="1.03" vaporized=""/>
    <tripinfo id="97" depart="99.00" departLane="LTR_0" departPos="5.10" departSpeed="0.00" departDelay="2.00" arrival="159.00" arrivalLane="-RTL_0" arrivalPos="178.50" arrivalSpeed="12.79" duration="60.00" routeLength="366.40" waitingTime="13.00" waitingCount="2" stopTime="0.00" timeLoss="32.39" rerouteNo="0" devices="tripinfo_97" vType="DEFAULT_VEHTYPE" speedFactor="0.96" vaporized=""/>
    <tripinfo id="104" depart="104.00" departLane="LTR_0" departPos="5.10" departSpeed="0.00" departDelay="0.00" arrival="161.00" arrivalLane="-RTL_0" arrivalPos="178.50" arrivalSpeed="13.41" duration="57.00" routeLength="366.40" waitingTime="10.00" waitingCount="1" stopTime="0.00" timeLoss="31.36" rerouteNo="0" devices="tripinfo_104" vType="DEFAULT_VEHTYPE" speedFactor="1.04" vaporized=""/>
    <tripinfo id="105" depart="107.00" departLane="LTR_0" departPos="5.10" departSpeed="0.00" departDelay="2.00" arrival="163.00" arrivalLane="-RTL_0" arrivalPos="178.50" arrivalSpeed="14.51" duration="56.00" routeLength="366.40" waitingTime="9.00" waitingCount="1" stopTime="0.00" timeLoss="31.02" rerouteNo="0" devices="tripinfo_105" vType="DEFAULT_VEHTYPE" speedFactor="1.09" vaporized=""/>
    <tripinfo id="112" depart="112.00" departLane="LTR_0" departPos="5.10" departSpeed="0.00" departDelay="0.00" arrival="165.00" arrivalLane="-RTL_0" arrivalPos="178.50" arrivalSpeed="13.26" duration="53.00" routeLength="366.40" waitingTime="7.00" waitingCount="1" stopTime="0.00" timeLoss="25.74" rerouteNo="0" devices="tripinfo_112" vType="DEFAULT_VEHTYPE" speedFactor="1.00" vaporized=""/>
    <tripinfo id="114" depart="115.00" departLane="LTR_0" departPos="5.10" departSpeed="0.00" departDelay="1.00" arrival="168.00" arrivalLane="-RTL_0" arrivalPos="178.50" arrivalSpeed="11.38" duration="53.00" routeLength="366.40" waitingTime="7.00" waitingCount="1" stopTime="0.00" timeLoss="23.61" rerouteNo="0" devices="tripinfo_114" vType="DEFAULT_VEHTYPE" speedFactor="0.90" vaporized=""/>
    <tripinfo id="124" depart="124.00" departLane="RTL_0" departPos="5.10" departSpeed="0.00" departDelay="0.00" arrival="168.00" arrivalLane="-LTR_0" arrivalPos="178.50" arrivalSpeed="15.33" duration="44.00" routeLength="366.40" waitingTime="11.00" waitingCount="1" stopTime="0.00" timeLoss="20.92" rerouteNo="0" devices="tripinfo_124" vType="DEFAULT_VEHTYPE" speedFactor="1.17" vaporized=""/>
    <tripinfo id="134" depart="134.00" departLane="RTL_0" departPos="5.10" departSpeed="0.00" departDelay="0.00" arrival="172.00" arrivalLane="-LTR_0" arrivalPos="178.50" arrivalSpeed="13.16" duration="38.00" routeLength="366.40" waitingTime="1.00" waitingCount="1" stopTime="0.00" timeLoss="11.30" rerouteNo="0" devices="tripinfo_134" vType="DEFAULT_VEHTYPE" speedFactor="1.00" vaporized=""/>
    <tripinfo id="135" depart="137.00" departLane="RTL_0" departPos="5.10" departSpeed="0.00" departDelay="2.00" arrival="174.00" arrivalLane="-LTR_0" arrivalPos="178.50" arrivalSpeed="13.60" duration="37.00" routeLength="366.40" waitingTime="0.00" waitingCount="0" stopTime="0.00" timeLoss="10.04" rerouteNo="0" devices="tripinfo_135" vType="DEFAULT_VEHTYPE" speedFactor="1.00" vaporized=""/>
    <tripinfo id="140" depart="140.00" departLane="RTL_0" departPos="5.10" departSpeed="0.00" departDelay="0.00" arrival="176.00" arrivalLane="-LTR_0" arrivalPos="178.50" arrivalSpeed="13.86" duration="36.00" routeLength="366.40" waitingTime="0.00" waitingCount="0" stopTime="0.00" timeLoss="9.44" rerouteNo="0" devices="tripinfo_140" vType="DEFAULT_VEHTYPE" speedFactor="1.02" vaporized=""/>
    <tripinfo id="141" depart="143.00" departLane="RTL_0" departPos="5.10" departSpeed="0.00" departDelay="2.00" arrival="178.00" arrivalLane="-LTR_0" arrivalPos="178.50" arrivalSpeed="12.81" duration="35.00" routeLength="366.40" waitingTime="0.00" waitingCount="0" stopTime="0.00" timeLoss="7.51" rerouteNo="0" devices="tripinfo_141" vType="DEFAULT_VEHTYPE" speedFactor="0.97" vaporized=""/>
    <tripinfo id="143" depart="146.00" departLane="RTL_0" departPos="5.10" departSpeed="0.00" departDelay="3.00" arrival="180.00" arrivalLane="-LTR_0" arrivalPos="178.50" arrivalSpeed="15.32" duration="34.00" routeLength="366.40" waitingTime="0.00" waitingCount="0" stopTime="0.00" timeLoss="9.73" rerouteNo="0" devices="tripinfo_143" vType="DEFAULT_VEHTYPE" speedFactor="1.12" vaporized=""/>
    <tripinfo id="146" depart="149.00" departLane="RTL_0" departPos="5.10" departSpeed="0.00" departDelay="3.00" arrival="182.00" arrivalLane="-LTR_0" arrivalPos="178.50" arrivalSpeed="13.66" duration="33.00" routeLength="366.40" waitingTime="0.00" waitingCount="0" stopTime="0.00" timeLoss="5.39" rerouteNo="0" devices="tripinfo_146" vType="DEFAULT_VEHTYPE" speedFactor="0.99" vaporized=""/>
    <tripinfo id="120" depart="120.00" departLane="LTR_0" departPos="5.10" departSpeed="0.00" departDelay="0.00" arrival="188.00" arrivalLane="-RTL_0" arrivalPos="178.50" arrivalSpeed="10.67" duration="68.00" routeLength="366.40" waitingTime="19.00" waitingCount="2" stopTime="0.00" timeLoss="36.10" rerouteNo="0" devices="tripinfo_120" vType="DEFAULT_VEHTYPE" speedFactor="0.85" vaporized=""/>
    <tripinfo id="122" depart="123.00" departLane="LTR_0" departPos="5.10" departSpeed="0.00" departDelay="1.00" arrival="190.00" arrivalLane="-RTL_0" arrivalPos="178.50" arrivalSpeed="11.58" duration="67.00" routeLength="366.40" waitingTime="16.00" waitingCount="2" stopTime="0.00" timeLoss="35.39" rerouteNo="0" devices="tripinfo_122" vType="DEFAULT_VEHTYPE" speedFactor="0.85" vaporized=""/>
    <tripinfo id="125" depart="126.00" departLane="LTR_0" departPos="5.10" departSpeed="0.00" departDelay="1.00" arrival="191.00" arrivalLane="-RTL_0" arrivalPos="178.50" arrivalSpeed="13.00" duration="65.00" routeLength="366.40" waitingTime="15.00" waitingCount="2" stopTime="0.00" timeLoss="38.99" rerouteNo="0" devices="tripinfo_125" vType="DEFAULT_VEHTYPE" speedFactor="1.02" vaporized=""/>
    <tripinfo id="129" depart="129.00" departLane="LTR_0" departPos="5.10" departSpeed="0.00" departDelay="0.00" arrival="193.00" arrivalLane="-RTL_0" arrivalPos="178.50" arrivalSpeed="14.13" duration="64.00" routeLength="366.40" waitingTime="15.00" waitingCount="2" stopTime="0.00" timeLoss="39.44" rerouteNo="0" devices="tripinfo_129" vType="DEFAULT_VEHTYPE" speedFactor="1.10" vaporized=""/>
    <tripinfo id="138" depart="138.00" departLane="LTR_0" departPos="5.10" departSpeed="0.00" departDelay="0.00" arrival="195.00" arrivalLane="-RTL_0" arrivalPos="178.50" arrivalSpeed="11.20" duration="57.00" routeLength="366.40" waitingTime="8.00" waitingCount="1" stopTime="0.00" timeLoss="27.36" rerouteNo="0" devices="tripinfo_138" vType="DEFAULT_VEHTYPE" speedFactor="0.90" vaporized=""/>
    <tripinfo id="139" depart="141.00" departLane="LTR_0" departPos="5.10" departSpeed="0.00" departDelay="2.00" arrival="197.00" arrivalLane="-RTL_0" arrivalPos="178.50" arrivalSpeed="15.22" duration="56.00" routeLength="366.40" waitingTime="8.00" waitingCount="1" stopTime="0.00" timeLoss="32.11" rerouteNo="0" devices="tripinfo_139" vType="DEFAULT_VEHTYPE" speedFactor="1.14" vaporized=""/>
    <tripinfo id="142" depart="144.00" departLane="LTR_0" departPos="5.10" departSpeed="0.00" departDelay="2.00" arrival="198.00" arrivalLane="-RTL_0" arrivalPos="178.50" arrivalSpeed="14.80" duration="54.00" routeLength="366.40" waitingTime="6.00" waitingCount="1" stopTime="0.00" timeLoss="29.51" rerouteNo="0" devices="tripinfo_142" vType="DEFAULT_VEHTYPE" speedFactor="1.08" vaporized=""/>
    <tripinfo id="155" depart="155.00" departLane="RTL_0" departPos="5.10" departSpeed="0.00" departDelay="0.00" arrival="202.00" arrivalLane="-LTR_0" arrivalPos="178.50" arrivalSpeed="11.79" duration="47.00" routeLength="366.40" waitingTime="8.00" waitingCount="1" stopTime="0.00" timeLoss="17.24" rerouteNo="0" devices="tripinfo_155" vType="DEFAULT_VEHTYPE" speedFactor="0.91" vaporized=""/>
    <tripinfo id="165" depart="165.00" departLane="RTL_0" departPos="5.10" departSpeed="0.00" departDelay="0.00" arrival="203.00" arrivalLane="-LTR_0" arrivalPos="178.50" arrivalSpeed="12.44" duration="38.00" routeLength="366.40" waitingTime="1.00" waitingCount="1" stopTime="0.00" timeLoss="10.88" rerouteNo="0" devices="tripinfo_165" vType="DEFAULT_VEHTYPE" speedFactor="0.97" vaporized=""/>
    <tripinfo id="166" depart="168.00" departLane="RTL_0" departPos="5.10" departSpeed="0.00" departDelay="2.00" arrival="205.00" arrivalLane="-LTR_0" arrivalPos="178.50" arrivalSpeed="12.85" duration="37.00" routeLength="366.40" waitingTime="0.00" waitingCount="0" stopTime="0.00" timeLoss="8.70" rerouteNo="0" devices="tripinfo_166" vType="DEFAULT_VEHTYPE" speedFactor="0.94" vaporized=""/>
    <tripinfo id="170" depart="171.00" departLane="RTL_0" departPos="5.10" departSpeed="0.00" departDelay="1.00" arrival="207.00" arrivalLane="-LTR_0" arrivalPos="178.50" arrivalSpeed="12.01" duration="36.00" routeLength="366.40" waitingTime="0.00" waitingCount="0" stopTime="0.00" timeLoss="8.03" rerouteNo="0" devices="tripinfo_170" vType="DEFAULT_VEHTYPE" speedFactor="0.96" vaporized=""/>
    <tripinfo id="173" depart="174.00" departLane="RTL_0" departPos="5.10" departSpeed="0.00" departDelay="1.00" arrival="209.00" arrivalLane="-LTR_0" arrivalPos="178.50" arrivalSpeed="14.01" duration="35.00" routeLength="366.40" waitingTime="0.00" waitingCount="0" stopTime="0.00" timeLoss="8.77" rerouteNo="0" devices="tripinfo_173" vType="DEFAULT_VEHTYPE" speedFactor="1.03" vaporized=""/>
    <tripinfo id="174" depart="177.00" departLane="RTL_0" departPos="5.10" departSpeed="0.00" departDelay="3.00" arrival="211.00" arrivalLane="-LTR_0" arrivalPos="178.50" arrivalSpeed="13.41" duration="34.00" routeLength="366.40" waitingTime="0.00" waitingCount="0" stopTime="0.00" timeLoss="6.27" rerouteNo="0" devices="tripinfo_174" vType="DEFAULT_VEHTYPE" speedFactor="0.98" vaporized=""/>
    <tripinfo id="176" depart="180.00" departLane="RTL_0" departPos="5.10" departSpeed="0.00" departDelay="4.00" arrival="212.00" arrivalLane="-LTR_0" arrivalPos="178.50" arrivalSpeed="12.93" duration="32.00" routeLength="366.40" waitingTime="0.00" waitingCount="0" stopTime="0.00" timeLoss="5.70" rerouteNo="0" devices="tripinfo_176" vType="DEFAULT_VEHTYPE" speedFactor="1.01" vaporized=""/>
    <tripinfo id="145" depart="147.00" departLane="LTR_0" departPos="5.10" departSpeed="0.00" departDelay="2.00" arrival="214.00" arrivalLane="-RTL_0" arrivalPos="178.50" arrivalSpeed="13.72" duration="67.00" routeLength="366.40" waitingTime="19.00" waitingCount="2" stopTime="0.00" timeLoss="41.00" rerouteNo="0" devices="tripinfo_145" vType="DEFAULT_VEHTYPE" speedFactor="1.02" vaporized=""/>
    <tripinfo id="149" depart="150.00" departLane="LTR_0" departPos="5.10" departSpeed="0.00" departDelay="1.00" arrival="218.00" arrivalLane="-RTL_0" arrivalPos="178.50" arrivalSpeed="12.19" duration="68.00" routeLength="366.40" waitingTime="17.00" waitingCount="2" stopTime="0.00" timeLoss="39.83" rerouteNo="0" devices="tripinfo_149" vType="DEFAULT_VEHTYPE" speedFactor="0.94" vaporized=""/>
    <tripinfo id="153" depart="153.00" departLane="LTR_0" departPos="5.10" departSpeed="0.00" departDelay="0.00" arrival="221.00" arrivalLane="-RTL_0" arrivalPos="178.50" arrivalSpeed="11.65" duration="68.00" routeLength="366.40" waitingTime="16.00" waitingCount="2" stopTime="0.00" timeLoss="37.68" rerouteNo="0" devices="tripinfo_153" vType="DEFAULT_VEHTYPE" speedFactor="0.88" vaporized=""/>
    <tripinfo id="158" depart="158.00" departLane="LTR_0" departPos="5.10" departSpeed="0.00" departDelay="0.00" arrival="223.00" arrivalLane="-RTL_0" arrivalPos="178.50" arrivalSpeed="11.77" duration="65.00" routeLength="366.40" waitingTime="14.00" waitingCount="2" stopTime="0.00" timeLoss="35.62" rerouteNo="0" devices="tripinfo_158" vType="DEFAULT_VEHTYPE" speedFactor="0.91" vaporized=""/>